Program Version,EnergyPlus, Version 9.4.0-998c4b761e, YMD=2024.03.11 20:52
1,5,Environment Title[],Latitude[deg],Longitude[deg],Time Zone[],Elevation[m]
2,8,Day of Simulation[],Month[],Day of Month[],DST Indicator[1=yes 0=no],Hour[],StartMinute[],EndMinute[],DayType
3,5,Cumulative Day of Simulation[],Month[],Day of Month[],DST Indicator[1=yes 0=no],DayType  ! When Daily Report Variables Requested
4,2,Cumulative Days of Simulation[],Month[]  ! When Monthly Report Variables Requested
5,1,Cumulative Days of Simulation[] ! When Run Period Report Variables Requested
6,1,Calendar Year of Simulation[] ! When Annual Report Variables Requested
7,1,Environment,Site Outdoor Air Drybulb Temperature [C] !TimeStep
8,1,Environment,Site Outdoor Air Humidity Ratio [kgWater/kgDryAir] !TimeStep
9,1,Environment,Site Outdoor Air Relative Humidity [%] !TimeStep
10,1,Environment,Site Wind Speed [m/s] !TimeStep
11,1,Environment,Site Diffuse Solar Radiation Rate per Area [W/m2] !TimeStep
12,1,Environment,Site Direct Solar Radiation Rate per Area [W/m2] !TimeStep
389,1,CORRIDOR,Zone Mean Air Temperature [C] !TimeStep
390,1,CORRIDOR,Zone Mean Air Humidity Ratio [kgWater/kgDryAir] !TimeStep
391,1,KITCHEN,Zone Mean Air Temperature [C] !TimeStep
392,1,KITCHEN,Zone Mean Air Humidity Ratio [kgWater/kgDryAir] !TimeStep
393,1,MASTER,Zone Mean Air Temperature [C] !TimeStep
394,1,MASTER,Zone Mean Air Humidity Ratio [kgWater/kgDryAir] !TimeStep
395,1,PARLOR,Zone Mean Air Temperature [C] !TimeStep
396,1,PARLOR,Zone Mean Air Humidity Ratio [kgWater/kgDryAir] !TimeStep
397,1,SECONDARY 1,Zone Mean Air Temperature [C] !TimeStep
398,1,SECONDARY 1,Zone Mean Air Humidity Ratio [kgWater/kgDryAir] !TimeStep
399,1,SECONDARY 2,Zone Mean Air Temperature [C] !TimeStep
400,1,SECONDARY 2,Zone Mean Air Humidity Ratio [kgWater/kgDryAir] !TimeStep
401,1,TOILET 1,Zone Mean Air Temperature [C] !TimeStep
402,1,TOILET 1,Zone Mean Air Humidity Ratio [kgWater/kgDryAir] !TimeStep
403,1,TOILET 2,Zone Mean Air Temperature [C] !TimeStep
404,1,TOILET 2,Zone Mean Air Humidity Ratio [kgWater/kgDryAir] !TimeStep
515,1,CORRIDOR,Zone Air Relative Humidity [%] !TimeStep
554,1,KITCHEN,Zone Air Relative Humidity [%] !TimeStep
593,1,MASTER,Zone Air Relative Humidity [%] !TimeStep
632,1,PARLOR,Zone Air Relative Humidity [%] !TimeStep
671,1,SECONDARY 1,Zone Air Relative Humidity [%] !TimeStep
710,1,SECONDARY 2,Zone Air Relative Humidity [%] !TimeStep
749,1,TOILET 1,Zone Air Relative Humidity [%] !TimeStep
788,1,TOILET 2,Zone Air Relative Humidity [%] !TimeStep
887,1,PARLOR--ZONEHVAC:IDEALLOADSAIRSYSTEM,Zone Ideal Loads Supply Air Sensible Cooling Rate [W] !TimeStep
888,1,PARLOR--ZONEHVAC:IDEALLOADSAIRSYSTEM,Zone Ideal Loads Supply Air Latent Cooling Rate [W] !TimeStep
889,1,PARLOR--ZONEHVAC:IDEALLOADSAIRSYSTEM,Zone Ideal Loads Supply Air Total Cooling Rate [W] !TimeStep
890,1,PARLOR--ZONEHVAC:IDEALLOADSAIRSYSTEM,Zone Ideal Loads Zone Sensible Cooling Rate [W] !TimeStep
891,1,PARLOR--ZONEHVAC:IDEALLOADSAIRSYSTEM,Zone Ideal Loads Zone Latent Cooling Rate [W] !TimeStep
892,1,PARLOR--ZONEHVAC:IDEALLOADSAIRSYSTEM,Zone Ideal Loads Zone Total Cooling Rate [W] !TimeStep
893,1,PARLOR--ZONEHVAC:IDEALLOADSAIRSYSTEM,Zone Ideal Loads Outdoor Air Mass Flow Rate [kg/s] !TimeStep
894,1,PARLOR--ZONEHVAC:IDEALLOADSAIRSYSTEM,Zone Ideal Loads Supply Air Mass Flow Rate [kg/s] !TimeStep
897,1,MASTER--ZONEHVAC:IDEALLOADSAIRSYSTEM,Zone Ideal Loads Supply Air Sensible Cooling Rate [W] !TimeStep
898,1,MASTER--ZONEHVAC:IDEALLOADSAIRSYSTEM,Zone Ideal Loads Supply Air Latent Cooling Rate [W] !TimeStep
899,1,MASTER--ZONEHVAC:IDEALLOADSAIRSYSTEM,Zone Ideal Loads Supply Air Total Cooling Rate [W] !TimeStep
900,1,MASTER--ZONEHVAC:IDEALLOADSAIRSYSTEM,Zone Ideal Loads Zone Sensible Cooling Rate [W] !TimeStep
901,1,MASTER--ZONEHVAC:IDEALLOADSAIRSYSTEM,Zone Ideal Loads Zone Latent Cooling Rate [W] !TimeStep
902,1,MASTER--ZONEHVAC:IDEALLOADSAIRSYSTEM,Zone Ideal Loads Zone Total Cooling Rate [W] !TimeStep
903,1,MASTER--ZONEHVAC:IDEALLOADSAIRSYSTEM,Zone Ideal Loads Outdoor Air Mass Flow Rate [kg/s] !TimeStep
904,1,MASTER--ZONEHVAC:IDEALLOADSAIRSYSTEM,Zone Ideal Loads Supply Air Mass Flow Rate [kg/s] !TimeStep
907,1,SECONDARY 1--ZONEHVAC:IDEALLOADSAIRSYSTEM,Zone Ideal Loads Supply Air Sensible Cooling Rate [W] !TimeStep
908,1,SECONDARY 1--ZONEHVAC:IDEALLOADSAIRSYSTEM,Zone Ideal Loads Supply Air Latent Cooling Rate [W] !TimeStep
909,1,SECONDARY 1--ZONEHVAC:IDEALLOADSAIRSYSTEM,Zone Ideal Loads Supply Air Total Cooling Rate [W] !TimeStep
910,1,SECONDARY 1--ZONEHVAC:IDEALLOADSAIRSYSTEM,Zone Ideal Loads Zone Sensible Cooling Rate [W] !TimeStep
911,1,SECONDARY 1--ZONEHVAC:IDEALLOADSAIRSYSTEM,Zone Ideal Loads Zone Latent Cooling Rate [W] !TimeStep
912,1,SECONDARY 1--ZONEHVAC:IDEALLOADSAIRSYSTEM,Zone Ideal Loads Zone Total Cooling Rate [W] !TimeStep
913,1,SECONDARY 1--ZONEHVAC:IDEALLOADSAIRSYSTEM,Zone Ideal Loads Outdoor Air Mass Flow Rate [kg/s] !TimeStep
914,1,SECONDARY 1--ZONEHVAC:IDEALLOADSAIRSYSTEM,Zone Ideal Loads Supply Air Mass Flow Rate [kg/s] !TimeStep
917,1,SECONDARY 2--ZONEHVAC:IDEALLOADSAIRSYSTEM,Zone Ideal Loads Supply Air Sensible Cooling Rate [W] !TimeStep
918,1,SECONDARY 2--ZONEHVAC:IDEALLOADSAIRSYSTEM,Zone Ideal Loads Supply Air Latent Cooling Rate [W] !TimeStep
919,1,SECONDARY 2--ZONEHVAC:IDEALLOADSAIRSYSTEM,Zone Ideal Loads Supply Air Total Cooling Rate [W] !TimeStep
920,1,SECONDARY 2--ZONEHVAC:IDEALLOADSAIRSYSTEM,Zone Ideal Loads Zone Sensible Cooling Rate [W] !TimeStep
921,1,SECONDARY 2--ZONEHVAC:IDEALLOADSAIRSYSTEM,Zone Ideal Loads Zone Latent Cooling Rate [W] !TimeStep
922,1,SECONDARY 2--ZONEHVAC:IDEALLOADSAIRSYSTEM,Zone Ideal Loads Zone Total Cooling Rate [W] !TimeStep
923,1,SECONDARY 2--ZONEHVAC:IDEALLOADSAIRSYSTEM,Zone Ideal Loads Outdoor Air Mass Flow Rate [kg/s] !TimeStep
924,1,SECONDARY 2--ZONEHVAC:IDEALLOADSAIRSYSTEM,Zone Ideal Loads Supply Air Mass Flow Rate [kg/s] !TimeStep
1072,1,PARLOR ZONE AIR NODE,System Node Temperature [C] !TimeStep
1073,1,PARLOR ZONE AIR NODE,System Node Mass Flow Rate [kg/s] !TimeStep
1074,1,PARLOR ZONE AIR NODE,System Node Humidity Ratio [kgWater/kgDryAir] !TimeStep
1075,1,PARLOR SUPPLY INLET,System Node Temperature [C] !TimeStep
1076,1,PARLOR SUPPLY INLET,System Node Mass Flow Rate [kg/s] !TimeStep
1077,1,PARLOR SUPPLY INLET,System Node Humidity Ratio [kgWater/kgDryAir] !TimeStep
1078,1,PARLOR RETURN OUTLET,System Node Temperature [C] !TimeStep
1079,1,PARLOR RETURN OUTLET,System Node Mass Flow Rate [kg/s] !TimeStep
1080,1,PARLOR RETURN OUTLET,System Node Humidity Ratio [kgWater/kgDryAir] !TimeStep
1081,1,MASTER ZONE AIR NODE,System Node Temperature [C] !TimeStep
1082,1,MASTER ZONE AIR NODE,System Node Mass Flow Rate [kg/s] !TimeStep
1083,1,MASTER ZONE AIR NODE,System Node Humidity Ratio [kgWater/kgDryAir] !TimeStep
1084,1,MASTER SUPPLY INLET,System Node Temperature [C] !TimeStep
1085,1,MASTER SUPPLY INLET,System Node Mass Flow Rate [kg/s] !TimeStep
1086,1,MASTER SUPPLY INLET,System Node Humidity Ratio [kgWater/kgDryAir] !TimeStep
1087,1,MASTER RETURN OUTLET,System Node Temperature [C] !TimeStep
1088,1,MASTER RETURN OUTLET,System Node Mass Flow Rate [kg/s] !TimeStep
1089,1,MASTER RETURN OUTLET,System Node Humidity Ratio [kgWater/kgDryAir] !TimeStep
1090,1,SECONDARY 1  ZONE AIR NODE,System Node Temperature [C] !TimeStep
1091,1,SECONDARY 1  ZONE AIR NODE,System Node Mass Flow Rate [kg/s] !TimeStep
1092,1,SECONDARY 1  ZONE AIR NODE,System Node Humidity Ratio [kgWater/kgDryAir] !TimeStep
1093,1,SECONDARY 1 SUPPLY INLET,System Node Temperature [C] !TimeStep
1094,1,SECONDARY 1 SUPPLY INLET,System Node Mass Flow Rate [kg/s] !TimeStep
1095,1,SECONDARY 1 SUPPLY INLET,System Node Humidity Ratio [kgWater/kgDryAir] !TimeStep
1096,1,SECONDARY 1 RETURN OUTLET,System Node Temperature [C] !TimeStep
1097,1,SECONDARY 1 RETURN OUTLET,System Node Mass Flow Rate [kg/s] !TimeStep
1098,1,SECONDARY 1 RETURN OUTLET,System Node Humidity Ratio [kgWater/kgDryAir] !TimeStep
1099,1,SECONDARY 2  ZONE AIR NODE,System Node Temperature [C] !TimeStep
1100,1,SECONDARY 2  ZONE AIR NODE,System Node Mass Flow Rate [kg/s] !TimeStep
1101,1,SECONDARY 2  ZONE AIR NODE,System Node Humidity Ratio [kgWater/kgDryAir] !TimeStep
1102,1,SECONDARY 2 SUPPLY INLET,System Node Temperature [C] !TimeStep
1103,1,SECONDARY 2 SUPPLY INLET,System Node Mass Flow Rate [kg/s] !TimeStep
1104,1,SECONDARY 2 SUPPLY INLET,System Node Humidity Ratio [kgWater/kgDryAir] !TimeStep
1105,1,SECONDARY 2 RETURN OUTLET,System Node Temperature [C] !TimeStep
1106,1,SECONDARY 2 RETURN OUTLET,System Node Mass Flow Rate [kg/s] !TimeStep
1107,1,SECONDARY 2 RETURN OUTLET,System Node Humidity Ratio [kgWater/kgDryAir] !TimeStep
End of Data Dictionary
1,RUNPERIOD,  23.17, 113.33,   8.00,  41.00
2,1, 8, 1, 1, 1, 0.00, 5.00,Monday
7,27.658333333333336
8,0.02047484714881342
9,85.66666666666666
10,3.9166666666666667
11,0.0
12,0.0
389,29.510045258797548
390,0.020536081794998937
391,35.16973445170083
392,0.02575221157794835
393,23.5384425143131
394,0.0092935845630478
395,25.0
396,0.010049356835135026
397,25.0
398,0.010049356695182217
399,25.0
400,0.01004935670696398
401,31.631840510744497
402,0.02460968798361501
403,30.400930028060473
404,0.020585296325506525
515,77.16294002919972
554,69.74696422463413
593,50.507492175655539
632,50.00000006575557
671,49.9999993805001
710,50.0000000067151
749,81.39162432162667
788,73.48474883148903
887,2027.7957649037158
888,1040.4077821345919
889,3068.203547038307
890,2027.7957649037158
891,1040.4077821345919
892,3068.203547038307
893,0.0
894,0.3906529543479857
897,1656.457479124429
898,493.97872847496299
899,2150.4362075993919
900,1656.457479124429
901,1157.16557349288
902,2813.623052617309
903,0.0
904,0.3
907,568.192380817407
908,271.77378557092916
909,839.9661663883361
910,568.192380817407
911,271.77378557092916
912,839.9661663883361
913,0.0
914,0.10207326725117136
917,439.79433368019888
918,227.30381661033278
919,667.0981502905316
920,439.79433368019888
921,227.30381661033278
922,667.0981502905316
923,0.0
924,0.08534589262953826
1072,25.0
1073,0.3906529543479857
1074,0.010049356835135026
1075,19.928502286906669
1076,0.3906529543479857
1077,0.009
1078,25.0
1079,0.3906529543479857
1080,0.010049356945933584
1081,23.5384425143131
1082,0.3
1083,0.0092935845630478
1084,18.55
1085,0.3
1086,0.008
1087,23.949333916672996
1088,0.3
1089,0.009521331069180218
1090,25.0
1091,0.10207326725117136
1092,0.010049356695182217
1093,19.56140742917853
1094,0.10207326725117136
1095,0.009
1096,25.0
1097,0.10207326725117136
1098,0.010049356600081643
1099,25.0
1100,0.08534589262953826
1101,0.01004935670696398
1102,19.965340081831369
1103,0.08534589262953826
1104,0.009
1105,25.0
1106,0.08534589262953826
1107,0.010049356718867604
2,1, 8, 1, 1, 1, 5.00,10.00,Monday
7,27.71666666666667
8,0.02046446057720043
9,85.33333333333334
10,3.8333333333333337
11,0.0
12,0.0
389,29.51083843131224
390,0.020532157096450088
391,35.17026220587924
392,0.02573298565976611
393,23.320231661118006
394,0.009286973898767532
395,25.0
396,0.010049356842165548
397,25.0
398,0.01004935703430476
399,25.0
400,0.010049357032525523
401,31.63690557416882
402,0.02459203796353561
403,30.403624455563795
404,0.02056860548925695
515,77.14514111920623
554,69.69492983389108
593,51.16810511870226
632,49.99999896312416
671,49.999999903901628
710,49.99999989518989
749,81.31211407538859
788,73.41575319396613
887,2026.7000787264918
888,1039.5259765391864
889,3066.226055265678
890,2026.7000787264918
891,1039.5259765391864
892,3066.226055265678
893,0.0
894,0.3903224702259538
897,937.3138941355549
898,0.0
899,937.3138941355549
900,937.3138941355549
901,0.0
902,937.3138941355549
903,0.0
904,0.3
907,567.8075567346996
908,271.5192555723023
909,839.3268123070019
910,567.8075567346996
911,271.5192555723023
912,839.3268123070019
913,0.0
914,0.10197773703302818
917,439.71422256321616
918,227.10090584792864
919,666.8151284111448
920,439.71422256321616
921,227.10090584792864
922,666.8151284111448
923,0.0
924,0.08526990612765376
1072,25.0
1073,0.3903224702259538
1074,0.010049356842165548
1075,19.926950891180156
1076,0.3903224702259538
1077,0.009
1078,25.0
1079,0.3903224702259538
1080,0.010049356480151069
1081,23.320231661118006
1082,0.3
1083,0.009286973898767532
1084,19.88663739658683
1085,0.3
1086,0.00914983100792946
1087,22.945542988200534
1088,0.3
1089,0.008910624517220592
1090,25.0
1091,0.10197773703302818
1092,0.01004935703430476
1093,19.559999582937438
1094,0.10197773703302818
1095,0.009
1096,25.0
1097,0.10197773703302818
1098,0.010049356997151907
1099,25.0
1100,0.08526990612765376
1101,0.010049357032525523
1102,19.961771462085627
1103,0.08526990612765376
1104,0.009
1105,25.000000000000005
1106,0.08526990612765376
1107,0.010049356994023727
2,1, 8, 1, 1, 1,10.00,15.00,Monday
7,27.775000000000003
8,0.020453725384560325
9,85.0
10,3.75
11,0.0
12,0.0
389,29.51213783035912
390,0.020526732451658856
391,35.17149889529138
392,0.025708926697317379
393,23.55468882669201
394,0.009601800531864286
395,25.000000000000005
396,0.010049356975817213
397,25.0
398,0.010049357047151396
399,24.999999999999998
400,0.01004935704628721
401,31.643659164056474
402,0.02456982102240394
403,30.40757675159555
404,0.02054724457364174
515,77.11963446286839
554,69.62760144697272
593,52.133673191131
632,49.999999617527148
671,49.999999966803027
710,50.0000028052097
749,81.21033860386278
788,73.3253571870391
887,2025.5910571501223
888,1038.6211472787778
889,3064.2122044289
890,2025.5910571501223
891,1038.6211472787778
892,3064.2122044289
893,0.0
894,0.3899830568440058
897,1082.349109321003
898,105.79245027062143
899,1188.1415595916245
900,1082.349109321003
901,83.46500287907702
902,1165.81411220008
903,0.0
904,0.3
907,567.4451953240333
908,271.25766340153907
909,838.7028587255724
910,567.4451953240333
911,271.25766340153907
912,838.7028587255724
913,0.0
914,0.10187961581316672
917,439.6495371729008
918,226.892803456644
919,666.5423406295448
920,439.6495371729008
921,226.892803456644
922,666.5423406295448
923,0.0
924,0.08519200766475325
1072,25.000000000000005
1073,0.3899830568440058
1074,0.010049356975817213
1075,19.925314091898906
1076,0.3899830568440058
1077,0.009
1078,25.0
1079,0.3899830568440058
1080,0.010049356842165548
1081,23.55468882669201
1082,0.3
1083,0.009601800531864286
1084,19.79042423119752
1085,0.3
1086,0.009177341770431376
1087,23.320231661118006
1088,0.3
1089,0.009286973898767532
1090,25.0
1091,0.10187961581316672
1092,0.010049357047151396
1093,19.55823529130294
1094,0.10187961581316672
1095,0.009
1096,25.0
1097,0.10187961581316672
1098,0.01004935703430476
1099,24.999999999999998
1100,0.08519200766475325
1101,0.01004935704628721
1102,19.957906412250979
1103,0.08519200766475325
1104,0.009
1105,25.0
1106,0.08519200766475325
1107,0.010049357032525523
2,1, 8, 1, 1, 1,15.00,20.00,Monday
7,27.833333333333337
8,0.02044263963032297
9,84.66666666666667
10,3.666666666666667
11,0.0
12,0.0
389,29.51397507144568
390,0.020520437515289697
391,35.17425341440091
392,0.025684823085621045
393,23.760715558968657
394,0.009923965753920739
395,25.000000000000005
396,0.01004935702513348
397,25.0
398,0.010049357051590746
399,25.0
400,0.010049356677837277
401,31.651424915869929
402,0.024547505567234355
403,30.41242715865403
404,0.020525313782749384
515,77.08858111074165
554,69.55432784156449
593,53.19128302614921
632,49.999999858995987
671,49.99999998853956
710,49.99999815851832
749,81.10365947517644
788,73.22926465750824
887,2024.4731339453973
888,1037.6917887550893
889,3062.1649227004866
890,2024.4731339453973
891,1037.6917887550893
892,3062.1649227004866
893,0.0
894,0.38963454565391139
897,1070.9642458751335
898,394.81675259758597
899,1465.7809984727194
900,1070.9642458751335
901,115.84339964100764
902,1186.807645516141
903,0.0
904,0.3
907,567.1085792281144
908,270.9886297563421
909,838.0972089844565
910,567.1085792281144
911,270.9886297563421
912,838.0972089844565
913,0.0
914,0.10177873151568301
917,439.6008152392132
918,226.67883639581448
919,666.2796516350277
920,439.6008152392132
921,226.67883639581448
922,666.2796516350277
923,0.0
924,0.08511192866841205
1072,25.000000000000005
1073,0.38963454565391139
1074,0.01004935702513348
1075,19.923578229860217
1076,0.38963454565391139
1077,0.009
1078,25.000000000000005
1079,0.38963454565391139
1080,0.010049356975817213
1081,23.760715558968657
1082,0.3
1083,0.009923965753920739
1084,20.0640089746278
1085,0.3
1086,0.009449669538998394
1087,23.55468882669201
1088,0.3
1089,0.009601800531864286
1090,25.0
1091,0.10177873151568301
1092,0.010049357051590746
1093,19.556072676610975
1094,0.10177873151568301
1095,0.009
1096,25.0
1097,0.10177873151568301
1098,0.010049357047151396
1099,25.0
1100,0.08511192866841205
1101,0.010049356677837277
1102,19.953721763634908
1103,0.08511192866841205
1104,0.009
1105,24.999999999999998
1106,0.08511192866841205
1107,0.01004935704628721
2,1, 8, 1, 1, 1,20.00,25.00,Monday
7,27.891666666666667
8,0.02043120136804744
9,84.33333333333333
10,3.583333333333333
11,0.0
12,0.0
389,29.51626358078134
390,0.020513649560879069
391,35.178364732351997
392,0.025663233311676877
393,23.88449716814301
394,0.010188667899023067
395,25.0
396,0.010049357043320726
397,24.999999999999998
398,0.010049357053123858
399,24.999999999999998
400,0.010049356919789412
401,31.659829406518424
402,0.02452749951222976
403,30.417853734462175
404,0.020505081110892926
515,77.05373352862819
554,69.48239522721799
593,54.18225959105622
632,49.999999948046788
671,50.00000283868421
710,50.00000218583439
749,81.0014588824928
788,73.13666822205183
887,2023.3274370499933
888,1036.737483803434
889,3060.0649208534275
890,2023.3274370499933
891,1036.737483803434
892,3060.0649208534275
893,0.0
894,0.3892767136875566
897,1059.4852354400537
898,548.3412583805657
899,1607.8264938206194
900,1059.4852354400537
901,154.99740722145567
902,1214.4826426615094
903,0.0
904,0.3
907,566.7765779915989
908,270.71258428157378
909,837.4891622731726
910,566.7765779915989
911,270.71258428157378
912,837.4891622731726
913,0.0
914,0.1016752282601848
917,439.5528032007351
918,226.4586519272138
919,666.0114551279489
920,439.5528032007351
921,226.4586519272138
922,666.0114551279489
923,0.0
924,0.08502955516094874
1072,25.0
1073,0.3892767136875566
1074,0.010049357043320726
1075,19.921787375634684
1076,0.3892767136875566
1077,0.009
1078,25.000000000000005
1079,0.3892767136875566
1080,0.01004935702513348
1081,23.88449716814301
1082,0.3
1083,0.010188667899023067
1084,20.30947122443567
1085,0.3
1086,0.009720452465300392
1087,23.760715558968657
1088,0.3
1089,0.009923965753920739
1090,24.999999999999998
1091,0.1016752282601848
1092,0.010049357053123858
1093,19.55372114428348
1094,0.1016752282601848
1095,0.009
1096,25.0
1097,0.1016752282601848
1098,0.010049357051590746
1099,24.999999999999998
1100,0.08502955516094874
1101,0.010049356919789412
1102,19.949384786483326
1103,0.08502955516094874
1104,0.009
1105,25.0
1106,0.08502955516094874
1107,0.010049356677837277
2,1, 8, 1, 1, 1,25.00,30.00,Monday
7,27.950000000000004
8,0.020419408645427244
9,84.0
10,3.5
11,0.0
12,0.0
389,29.51883849240379
390,0.020506494824573168
391,35.18306970076536
392,0.025644512023489636
393,23.97126661229867
394,0.010406676518295463
395,24.999999999999998
396,0.010049357050024166
397,25.0
398,0.010049356673245533
399,24.999999999999998
400,0.010049356632492098
401,31.668651135994975
402,0.024510127497770197
403,30.423668040907235
404,0.020486911426031146
515,77.01629039251833
554,69.41567144008674
593,55.03476453505317
632,50.00000282350708
671,49.999998136035618
710,50.000000779131159
749,80.90578947735911
788,73.04961778596062
887,2022.2020227754509
888,1035.758413002912
889,3057.960435778363
890,2022.2020227754509
891,1035.758413002912
892,3057.960435778363
893,0.0
894,0.38890964302967725
897,1047.3437820147422
898,699.5932867374113
899,1746.9370687521535
900,1047.3437820147422
901,190.68855244284533
902,1238.0323344575875
903,0.0
904,0.3
907,566.4529974292699
908,270.4296081893016
909,836.8826056185715
910,566.4529974292699
911,270.4296081893016
912,836.8826056185715
913,0.0
914,0.10156913860801373
917,439.5078968555634
918,226.23368514461942
919,665.7415820001828
920,439.5078968555634
921,226.23368514461942
922,665.7415820001828
923,0.0
924,0.084945345558089
1072,24.999999999999998
1073,0.38890964302967725
1074,0.010049357050024166
1075,19.919821594251457
1076,0.38890964302967725
1077,0.009
1078,25.0
1079,0.38890964302967725
1080,0.010049357043320726
1081,23.97126661229867
1082,0.3
1083,0.010406676518295463
1084,20.47444307884054
1085,0.3
1086,0.009938321988696826
1087,23.88449716814301
1088,0.3
1089,0.010188667899023067
1090,25.0
1091,0.10156913860801373
1092,0.010049356673245533
1093,19.551145072629326
1094,0.10156913860801373
1095,0.009
1096,24.999999999999998
1097,0.10156913860801373
1098,0.010049357053123858
1099,24.999999999999998
1100,0.084945345558089
1101,0.010049356632492098
1102,19.94489441982541
1103,0.084945345558089
1104,0.009
1105,24.999999999999998
1106,0.084945345558089
1107,0.010049356919789412
2,1, 8, 1, 1, 1,30.00,35.00,Monday
7,28.008333333333338
8,0.020407259504294466
9,83.66666666666666
10,3.4166666666666667
11,0.0
12,0.0
389,29.52157872474109
390,0.020498985052801293
391,35.18785527562179
392,0.025628070617686319
393,24.044575493236044
394,0.010591156024212848
395,24.999999999999998
396,0.010049356685582923
397,24.999999999999998
398,0.01004935692277669
399,25.0
400,0.010049356530049264
401,31.677793857454188
402,0.02449483313085881
403,30.42986285249785
404,0.020470353590913517
515,76.97683395113732
554,69.35459428708136
593,55.74800883905464
632,50.000001039081499
671,50.00000220046111
710,49.99999743489907
749,80.81531793697373
788,72.96659243348451
887,2021.1184698853147
888,1034.7553137891412
889,3055.873783674456
890,2021.1184698853147
891,1034.7553137891412
892,3055.873783674456
893,0.0
894,0.38853361765429597
897,1036.3395753404
898,845.545290814106
899,1881.884866154506
900,1036.3395753404
901,221.33844447938328
902,1257.6780198197833
903,0.0
904,0.3
907,566.1411821677322
908,270.1385356647745
909,836.2797178325067
910,566.1411821677322
911,270.1385356647745
912,836.2797178325067
913,0.0
914,0.1014600652736814
917,439.46769073945247
918,226.00221789213323
919,665.4699086315857
920,439.46769073945247
921,226.00221789213323
922,665.4699086315857
923,0.0
924,0.08485875021961495
1072,24.999999999999998
1073,0.38853361765429597
1074,0.010049356685582923
1075,19.91762970180892
1076,0.38853361765429597
1077,0.009
1078,24.999999999999998
1079,0.38853361765429597
1080,0.010049357050024166
1081,24.044575493236044
1082,0.3
1083,0.010591156024212848
1084,20.59837636884897
1085,0.3
1086,0.0101161181907045
1087,23.97126661229867
1088,0.3
1089,0.010406676518295463
1090,24.999999999999998
1091,0.1014600652736814
1092,0.01004935692277669
1093,19.548290002185305
1094,0.1014600652736814
1095,0.009
1096,25.0
1097,0.1014600652736814
1098,0.010049356673245533
1099,25.0
1100,0.08485875021961495
1101,0.010049356530049264
1102,19.94019877381357
1103,0.08485875021961495
1104,0.009
1105,24.999999999999998
1106,0.08485875021961495
1107,0.010049356632492098
2,1, 8, 1, 1, 1,35.00,40.00,Monday
7,28.06666666666667
8,0.020394751980622625
9,83.33333333333334
10,3.3333333333333337
11,0.0
12,0.0
389,29.524434503870468
390,0.020491105368248644
391,35.19260670426697
392,0.02561320086344611
393,24.108828692874476
394,0.010748815694113616
395,24.999999999999998
396,0.010049356551415869
397,25.0
398,0.01004935662808761
399,25.0
400,0.010049356867442315
401,31.687233094309695
402,0.02448096534757679
403,30.436492699123116
404,0.020454858572994219
515,76.93552739031532
554,69.29775844837828
593,56.34600000777997
632,50.000000382154968
671,49.99999791492742
710,49.99999908688763
749,80.72808796530066
788,72.88546401483606
887,2020.0759938385023
888,1033.7251194029319
889,3053.801113241434
890,2020.0759938385023
891,1033.7251194029319
892,3053.801113241434
893,0.0
894,0.3881476222855716
897,1027.0679482100928
898,973.1054727902283
899,2000.173421000321
900,1027.0679482100928
901,247.41717661217013
902,1274.4851248222629
903,0.0
904,0.3
907,565.8411285689873
908,269.84139589483257
909,835.6825244638199
910,565.8411285689873
911,269.84139589483257
912,835.6825244638199
913,0.0
914,0.10134866999493135
917,439.4313364463925
918,225.76507542891535
919,665.1964118753078
920,439.4313364463925
921,225.76507542891535
922,665.1964118753078
923,0.0
924,0.0847700196554632
1072,24.999999999999998
1073,0.3881476222855716
1074,0.010049356551415869
1075,19.915199560672634
1076,0.3881476222855716
1077,0.009
1078,24.999999999999998
1079,0.3881476222855716
1080,0.010049356685582923
1081,24.108828692874476
1082,0.3
1083,0.010748815694113616
1084,20.70297976117115
1085,0.3
1086,0.01026638814925948
1087,24.044575493236044
1088,0.3
1089,0.010591156024212848
1090,25.0
1091,0.10134866999493135
1092,0.01004935662808761
1093,19.54519044150786
1094,0.10134866999493135
1095,0.009
1096,24.999999999999998
1097,0.10134866999493135
1098,0.01004935692277669
1099,25.0
1100,0.0847700196554632
1101,0.010049356867442315
1102,19.935321574852286
1103,0.0847700196554632
1104,0.009
1105,25.0
1106,0.0847700196554632
1107,0.010049356530049264
2,1, 8, 1, 1, 1,40.00,45.00,Monday
7,28.125
8,0.02038188410453267
9,83.0
10,3.25
11,0.0
12,0.0
389,29.527398574567397
390,0.02048284516175495
391,35.19740438832065
392,0.025599361483745768
393,24.16435071396691
394,0.010883647122468386
395,24.999999999999998
396,0.010049356502053362
397,25.0
398,0.010049356907431686
399,25.0
400,0.01004935698759137
401,31.696969027646799
402,0.024468039407925747
403,30.443582488280759
404,0.020440019208672445
515,76.89237159927976
554,69.2434483534468
593,56.85091077137548
632,50.00000014045971
671,49.999999282688879
710,49.999999675177338
749,80.64256471523017
788,72.80473176327117
887,2019.070839030519
888,1032.670780177301
889,3051.74161920782
890,2019.070839030519
891,1032.670780177301
892,3051.74161920782
893,0.0
894,0.3877525361110804
897,1019.343581371493
898,1081.0151224944023
899,2100.358703865895
900,1019.343581371493
901,269.4973186801808
902,1288.8409000516738
903,0.0
904,0.3
907,565.5527549873968
908,269.53568506120419
909,835.088440048601
910,565.5527549873968
911,269.53568506120419
912,835.088440048601
913,0.0
914,0.10123412903297025
917,439.3980245325894
918,225.52254328926427
919,664.9205678218536
920,439.3980245325894
921,225.52254328926427
922,664.9205678218536
923,0.0
924,0.08467923965053567
1072,24.999999999999998
1073,0.3877525361110804
1074,0.010049356502053362
1075,19.91255127572725
1076,0.3877525361110804
1077,0.009
1078,24.999999999999998
1079,0.3877525361110804
1080,0.010049356551415869
1081,24.16435071396691
1082,0.3
1083,0.010883647122468386
1084,20.79331286728804
1085,0.3
1086,0.01039508809376615
1087,24.108828692874476
1088,0.3
1089,0.010748815694113616
1090,25.0
1091,0.10123412903297025
1092,0.010049356907431686
1093,19.541801733735217
1094,0.10123412903297025
1095,0.009
1096,25.0
1097,0.10123412903297025
1098,0.01004935662808761
1099,25.0
1100,0.08467923965053567
1101,0.01004935698759137
1102,19.930276360831497
1103,0.08467923965053567
1104,0.009
1105,25.0
1106,0.08467923965053567
1107,0.010049356867442315
2,1, 8, 1, 1, 1,45.00,50.00,Monday
7,28.183333333333338
8,0.02036865273284823
9,82.66666666666667
10,3.1666666666666667
11,0.0
12,0.0
389,29.53047534868095
390,0.02047420137624723
391,35.20233948731649
392,0.025586192546937563
393,24.21203309931197
394,0.010998890553031042
395,25.0
396,0.010049356483903434
397,25.0
398,0.010049357003570205
399,25.000000000000005
400,0.010049357030348753
401,31.707004974833418
402,0.024455737432058298
403,30.45111521119183
404,0.02042557223674243
515,76.84733579412833
554,69.1903706428585
593,57.278366735240009
632,49.99999720895376
671,49.999999753415028
710,49.9999998845317
749,80.55771452018948
788,72.72355982011256
887,2018.0994876797882
888,1031.590797339602
889,3049.69028501939
890,2018.0994876797882
891,1031.590797339602
892,3049.69028501939
893,0.0
894,0.38734784969930938
897,1012.824933011021
898,1172.4997248617825
899,2185.3246578728037
900,1012.824933011021
901,288.1967357925463
902,1301.0216688035674
903,0.0
904,0.3
907,565.2759375667482
908,269.22359798761138
909,834.4995355543596
910,565.2759375667482
911,269.22359798761138
912,834.4995355543596
913,0.0
914,0.10111715585612655
917,439.36713012882975
918,225.2739160842197
919,664.6410462130494
920,439.36713012882975
921,225.2739160842197
922,664.6410462130494
923,0.0
924,0.0845861987657795
1072,25.0
1073,0.38734784969930938
1074,0.010049356483903434
1075,19.909686169993785
1076,0.38734784969930938
1077,0.009
1078,24.999999999999998
1079,0.38734784969930938
1080,0.010049356502053362
1081,24.21203309931197
1082,0.3
1083,0.010998890553031042
1084,20.87084294392938
1085,0.3
1086,0.01050539714495404
1087,24.16435071396691
1088,0.3
1089,0.010883647122468386
1090,25.0
1091,0.10111715585612655
1092,0.010049357003570205
1093,19.5381623260631
1094,0.10111715585612655
1095,0.009
1096,25.0
1097,0.10111715585612655
1098,0.010049356907431686
1099,25.000000000000005
1100,0.0845861987657795
1101,0.010049357030348753
1102,19.92505674986178
1103,0.0845861987657795
1104,0.009
1105,25.0
1106,0.0845861987657795
1107,0.01004935698759137
2,1, 8, 1, 1, 1,50.00,55.00,Monday
7,28.241666666666668
8,0.020355058220209774
9,82.33333333333333
10,3.0833333333333337
11,0.0
12,0.0
389,29.533667250624739
390,0.020465174956784454
391,35.207457569784079
392,0.025573456239140509
393,24.253091486976446
394,0.011097434578592167
395,25.0
396,0.010049356844697847
397,25.000000000000008
398,0.010049357036632454
399,25.0
400,0.010049357045554234
401,31.717344677239827
402,0.024443847181313595
403,30.45905600295566
404,0.02041134412393095
515,76.80041228626982
554,69.13774762733226
593,57.64046603984515
632,49.99999897552314
671,49.99999991529879
710,49.99999995898279
749,80.4728578270002
788,72.64150174953812
887,2017.1592105890123
888,1030.4844551735315
889,3047.6436657625438
890,2017.1592105890123
891,1030.4844551735315
892,3047.6436657625438
893,0.0
894,0.38693331314574377
897,1007.3088583537573