Program Version,EnergyPlus, Version 9.4.0-998c4b761e, YMD=2024.03.09 22:54
1,5,Environment Title[],Latitude[deg],Longitude[deg],Time Zone[],Elevation[m]
2,8,Day of Simulation[],Month[],Day of Month[],DST Indicator[1=yes 0=no],Hour[],StartMinute[],EndMinute[],DayType
3,5,Cumulative Day of Simulation[],Month[],Day of Month[],DST Indicator[1=yes 0=no],DayType  ! When Daily Report Variables Requested
4,2,Cumulative Days of Simulation[],Month[]  ! When Monthly Report Variables Requested
5,1,Cumulative Days of Simulation[] ! When Run Period Report Variables Requested
6,1,Calendar Year of Simulation[] ! When Annual Report Variables Requested
7,1,Environment,Site Outdoor Air Drybulb Temperature [C] !TimeStep
8,1,Environment,Site Outdoor Air Humidity Ratio [kgWater/kgDryAir] !TimeStep
9,1,Environment,Site Outdoor Air Relative Humidity [%] !TimeStep
10,1,Environment,Site Wind Speed [m/s] !TimeStep
11,1,Environment,Site Diffuse Solar Radiation Rate per Area [W/m2] !TimeStep
12,1,Environment,Site Direct Solar Radiation Rate per Area [W/m2] !TimeStep
389,1,CORRIDOR,Zone Mean Air Temperature [C] !TimeStep
390,1,CORRIDOR,Zone Mean Air Humidity Ratio [kgWater/kgDryAir] !TimeStep
391,1,KITCHEN,Zone Mean Air Temperature [C] !TimeStep
392,1,KITCHEN,Zone Mean Air Humidity Ratio [kgWater/kgDryAir] !TimeStep
393,1,MASTER,Zone Mean Air Temperature [C] !TimeStep
394,1,MASTER,Zone Mean Air Humidity Ratio [kgWater/kgDryAir] !TimeStep
395,1,PARLOR,Zone Mean Air Temperature [C] !TimeStep
396,1,PARLOR,Zone Mean Air Humidity Ratio [kgWater/kgDryAir] !TimeStep
397,1,SECONDARY 1,Zone Mean Air Temperature [C] !TimeStep
398,1,SECONDARY 1,Zone Mean Air Humidity Ratio [kgWater/kgDryAir] !TimeStep
399,1,SECONDARY 2,Zone Mean Air Temperature [C] !TimeStep
400,1,SECONDARY 2,Zone Mean Air Humidity Ratio [kgWater/kgDryAir] !TimeStep
401,1,TOILET 1,Zone Mean Air Temperature [C] !TimeStep
402,1,TOILET 1,Zone Mean Air Humidity Ratio [kgWater/kgDryAir] !TimeStep
403,1,TOILET 2,Zone Mean Air Temperature [C] !TimeStep
404,1,TOILET 2,Zone Mean Air Humidity Ratio [kgWater/kgDryAir] !TimeStep
515,1,CORRIDOR,Zone Air Relative Humidity [%] !TimeStep
554,1,KITCHEN,Zone Air Relative Humidity [%] !TimeStep
593,1,MASTER,Zone Air Relative Humidity [%] !TimeStep
632,1,PARLOR,Zone Air Relative Humidity [%] !TimeStep
671,1,SECONDARY 1,Zone Air Relative Humidity [%] !TimeStep
710,1,SECONDARY 2,Zone Air Relative Humidity [%] !TimeStep
749,1,TOILET 1,Zone Air Relative Humidity [%] !TimeStep
788,1,TOILET 2,Zone Air Relative Humidity [%] !TimeStep
887,1,PARLOR--ZONEHVAC:IDEALLOADSAIRSYSTEM,Zone Ideal Loads Supply Air Sensible Cooling Rate [W] !TimeStep
888,1,PARLOR--ZONEHVAC:IDEALLOADSAIRSYSTEM,Zone Ideal Loads Supply Air Latent Cooling Rate [W] !TimeStep
889,1,PARLOR--ZONEHVAC:IDEALLOADSAIRSYSTEM,Zone Ideal Loads Supply Air Total Cooling Rate [W] !TimeStep
890,1,PARLOR--ZONEHVAC:IDEALLOADSAIRSYSTEM,Zone Ideal Loads Zone Sensible Cooling Rate [W] !TimeStep
891,1,PARLOR--ZONEHVAC:IDEALLOADSAIRSYSTEM,Zone Ideal Loads Zone Latent Cooling Rate [W] !TimeStep
892,1,PARLOR--ZONEHVAC:IDEALLOADSAIRSYSTEM,Zone Ideal Loads Zone Total Cooling Rate [W] !TimeStep
893,1,PARLOR--ZONEHVAC:IDEALLOADSAIRSYSTEM,Zone Ideal Loads Outdoor Air Mass Flow Rate [kg/s] !TimeStep
894,1,PARLOR--ZONEHVAC:IDEALLOADSAIRSYSTEM,Zone Ideal Loads Supply Air Mass Flow Rate [kg/s] !TimeStep
897,1,MASTER--ZONEHVAC:IDEALLOADSAIRSYSTEM,Zone Ideal Loads Supply Air Sensible Cooling Rate [W] !TimeStep
898,1,MASTER--ZONEHVAC:IDEALLOADSAIRSYSTEM,Zone Ideal Loads Supply Air Latent Cooling Rate [W] !TimeStep
899,1,MASTER--ZONEHVAC:IDEALLOADSAIRSYSTEM,Zone Ideal Loads Supply Air Total Cooling Rate [W] !TimeStep
900,1,MASTER--ZONEHVAC:IDEALLOADSAIRSYSTEM,Zone Ideal Loads Zone Sensible Cooling Rate [W] !TimeStep
901,1,MASTER--ZONEHVAC:IDEALLOADSAIRSYSTEM,Zone Ideal Loads Zone Latent Cooling Rate [W] !TimeStep
902,1,MASTER--ZONEHVAC:IDEALLOADSAIRSYSTEM,Zone Ideal Loads Zone Total Cooling Rate [W] !TimeStep
903,1,MASTER--ZONEHVAC:IDEALLOADSAIRSYSTEM,Zone Ideal Loads Outdoor Air Mass Flow Rate [kg/s] !TimeStep
904,1,MASTER--ZONEHVAC:IDEALLOADSAIRSYSTEM,Zone Ideal Loads Supply Air Mass Flow Rate [kg/s] !TimeStep
907,1,SECONDARY 1--ZONEHVAC:IDEALLOADSAIRSYSTEM,Zone Ideal Loads Supply Air Sensible Cooling Rate [W] !TimeStep
908,1,SECONDARY 1--ZONEHVAC:IDEALLOADSAIRSYSTEM,Zone Ideal Loads Supply Air Latent Cooling Rate [W] !TimeStep
909,1,SECONDARY 1--ZONEHVAC:IDEALLOADSAIRSYSTEM,Zone Ideal Loads Supply Air Total Cooling Rate [W] !TimeStep
910,1,SECONDARY 1--ZONEHVAC:IDEALLOADSAIRSYSTEM,Zone Ideal Loads Zone Sensible Cooling Rate [W] !TimeStep
911,1,SECONDARY 1--ZONEHVAC:IDEALLOADSAIRSYSTEM,Zone Ideal Loads Zone Latent Cooling Rate [W] !TimeStep
912,1,SECONDARY 1--ZONEHVAC:IDEALLOADSAIRSYSTEM,Zone Ideal Loads Zone Total Cooling Rate [W] !TimeStep
913,1,SECONDARY 1--ZONEHVAC:IDEALLOADSAIRSYSTEM,Zone Ideal Loads Outdoor Air Mass Flow Rate [kg/s] !TimeStep
914,1,SECONDARY 1--ZONEHVAC:IDEALLOADSAIRSYSTEM,Zone Ideal Loads Supply Air Mass Flow Rate [kg/s] !TimeStep
917,1,SECONDARY 2--ZONEHVAC:IDEALLOADSAIRSYSTEM,Zone Ideal Loads Supply Air Sensible Cooling Rate [W] !TimeStep
918,1,SECONDARY 2--ZONEHVAC:IDEALLOADSAIRSYSTEM,Zone Ideal Loads Supply Air Latent Cooling Rate [W] !TimeStep
919,1,SECONDARY 2--ZONEHVAC:IDEALLOADSAIRSYSTEM,Zone Ideal Loads Supply Air Total Cooling Rate [W] !TimeStep
920,1,SECONDARY 2--ZONEHVAC:IDEALLOADSAIRSYSTEM,Zone Ideal Loads Zone Sensible Cooling Rate [W] !TimeStep
921,1,SECONDARY 2--ZONEHVAC:IDEALLOADSAIRSYSTEM,Zone Ideal Loads Zone Latent Cooling Rate [W] !TimeStep
922,1,SECONDARY 2--ZONEHVAC:IDEALLOADSAIRSYSTEM,Zone Ideal Loads Zone Total Cooling Rate [W] !TimeStep
923,1,SECONDARY 2--ZONEHVAC:IDEALLOADSAIRSYSTEM,Zone Ideal Loads Outdoor Air Mass Flow Rate [kg/s] !TimeStep
924,1,SECONDARY 2--ZONEHVAC:IDEALLOADSAIRSYSTEM,Zone Ideal Loads Supply Air Mass Flow Rate [kg/s] !TimeStep
1072,1,PARLOR ZONE AIR NODE,System Node Temperature [C] !TimeStep
1073,1,PARLOR ZONE AIR NODE,System Node Mass Flow Rate [kg/s] !TimeStep
1074,1,PARLOR ZONE AIR NODE,System Node Humidity Ratio [kgWater/kgDryAir] !TimeStep
1075,1,PARLOR SUPPLY INLET,System Node Temperature [C] !TimeStep
1076,1,PARLOR SUPPLY INLET,System Node Mass Flow Rate [kg/s] !TimeStep
1077,1,PARLOR SUPPLY INLET,System Node Humidity Ratio [kgWater/kgDryAir] !TimeStep
1078,1,PARLOR RETURN OUTLET,System Node Temperature [C] !TimeStep
1079,1,PARLOR RETURN OUTLET,System Node Mass Flow Rate [kg/s] !TimeStep
1080,1,PARLOR RETURN OUTLET,System Node Humidity Ratio [kgWater/kgDryAir] !TimeStep
1081,1,MASTER ZONE AIR NODE,System Node Temperature [C] !TimeStep
1082,1,MASTER ZONE AIR NODE,System Node Mass Flow Rate [kg/s] !TimeStep
1083,1,MASTER ZONE AIR NODE,System Node Humidity Ratio [kgWater/kgDryAir] !TimeStep
1084,1,MASTER SUPPLY INLET,System Node Temperature [C] !TimeStep
1085,1,MASTER SUPPLY INLET,System Node Mass Flow Rate [kg/s] !TimeStep
1086,1,MASTER SUPPLY INLET,System Node Humidity Ratio [kgWater/kgDryAir] !TimeStep
1087,1,MASTER RETURN OUTLET,System Node Temperature [C] !TimeStep
1088,1,MASTER RETURN OUTLET,System Node Mass Flow Rate [kg/s] !TimeStep
1089,1,MASTER RETURN OUTLET,System Node Humidity Ratio [kgWater/kgDryAir] !TimeStep
1090,1,SECONDARY 1  ZONE AIR NODE,System Node Temperature [C] !TimeStep
1091,1,SECONDARY 1  ZONE AIR NODE,System Node Mass Flow Rate [kg/s] !TimeStep
1092,1,SECONDARY 1  ZONE AIR NODE,System Node Humidity Ratio [kgWater/kgDryAir] !TimeStep
1093,1,SECONDARY 1 SUPPLY INLET,System Node Temperature [C] !TimeStep
1094,1,SECONDARY 1 SUPPLY INLET,System Node Mass Flow Rate [kg/s] !TimeStep
1095,1,SECONDARY 1 SUPPLY INLET,System Node Humidity Ratio [kgWater/kgDryAir] !TimeStep
1096,1,SECONDARY 1 RETURN OUTLET,System Node Temperature [C] !TimeStep
1097,1,SECONDARY 1 RETURN OUTLET,System Node Mass Flow Rate [kg/s] !TimeStep
1098,1,SECONDARY 1 RETURN OUTLET,System Node Humidity Ratio [kgWater/kgDryAir] !TimeStep
1099,1,SECONDARY 2  ZONE AIR NODE,System Node Temperature [C] !TimeStep
1100,1,SECONDARY 2  ZONE AIR NODE,System Node Mass Flow Rate [kg/s] !TimeStep
1101,1,SECONDARY 2  ZONE AIR NODE,System Node Humidity Ratio [kgWater/kgDryAir] !TimeStep
1102,1,SECONDARY 2 SUPPLY INLET,System Node Temperature [C] !TimeStep
1103,1,SECONDARY 2 SUPPLY INLET,System Node Mass Flow Rate [kg/s] !TimeStep
1104,1,SECONDARY 2 SUPPLY INLET,System Node Humidity Ratio [kgWater/kgDryAir] !TimeStep
1105,1,SECONDARY 2 RETURN OUTLET,System Node Temperature [C] !TimeStep
1106,1,SECONDARY 2 RETURN OUTLET,System Node Mass Flow Rate [kg/s] !TimeStep
1107,1,SECONDARY 2 RETURN OUTLET,System Node Humidity Ratio [kgWater/kgDryAir] !TimeStep
End of Data Dictionary
1,RUNPERIOD,  23.17, 113.33,   8.00,  41.00
2,1, 8, 1, 1, 1, 0.00, 5.00,Monday
7,27.658333333333336
8,0.02047484714881342
9,85.66666666666666
10,3.9166666666666667
11,0.0
12,0.0
389,29.510045258797548
390,0.020536081794998937
391,35.16973445170083
392,0.02575221157794835
393,23.5384425143131
394,0.0092935845630478
395,25.0
396,0.010049356835135026
397,25.0
398,0.010049356695182217
399,25.0
400,0.01004935670696398
401,31.631840510744497
402,0.02460968798361501
403,30.400930028060473
404,0.020585296325506525
515,77.16294002919972
554,69.74696422463413
593,50.507492175655539
632,50.00000006575557
671,49.9999993805001
710,50.0000000067151
749,81.39162432162667
788,73.48474883148903
887,2027.7957649037158
888,1040.4077821345919
889,3068.203547038307
890,2027.7957649037158
891,1040.4077821345919
892,3068.203547038307
893,0.0
894,0.3906529543479857
897,1656.457479124429
898,493.97872847496299
899,2150.4362075993919
900,1656.457479124429
901,1157.16557349288
902,2813.623052617309
903,0.0
904,0.3
907,568.192380817407
908,271.77378557092916
909,839.9661663883361
910,568.192380817407
911,271.77378557092916
912,839.9661663883361
913,0.0
914,0.10207326725117136
917,439.79433368019888
918,227.30381661033278
919,667.0981502905316
920,439.79433368019888
921,227.30381661033278
922,667.0981502905316
923,0.0
924,0.08534589262953826
1072,25.0
1073,0.3906529543479857
1074,0.010049356835135026
1075,19.928502286906669
1076,0.3906529543479857
1077,0.009
1078,25.0
1079,0.3906529543479857
1080,0.010049356945933584
1081,23.5384425143131
1082,0.3
1083,0.0092935845630478
1084,18.55
1085,0.3
1086,0.008
1087,23.949333916672996
1088,0.3
1089,0.009521331069180218
1090,25.0
1091,0.10207326725117136
1092,0.010049356695182217
1093,19.56140742917853
1094,0.10207326725117136
1095,0.009
1096,25.0
1097,0.10207326725117136
1098,0.010049356600081643
1099,25.0
1100,0.08534589262953826
1101,0.01004935670696398
1102,19.965340081831369
1103,0.08534589262953826
1104,0.009
1105,25.0
1106,0.08534589262953826
1107,0.010049356718867604
2,1, 8, 1, 1, 1, 5.00,10.00,Monday
7,27.71666666666667
8,0.02046446057720043
9,85.33333333333334
10,3.8333333333333337
11,0.0
12,0.0
389,29.51078649945132
390,0.020533858495419369
391,35.17068149997025
392,0.025741387375510718
393,24.29757953845545
394,0.009496937386932
395,25.0
396,0.010049357022971148
397,25.000000000000008
398,0.010049357007711634
399,25.0
400,0.010049357007070723
401,31.635807955552445
402,0.024599780864676847
403,30.403346955929103
404,0.020575847689948337
515,77.15155842637437
554,69.71516803444956
593,49.3220529227125
632,50.000001269727508
671,49.999999773692838
710,50.000001191873739
749,81.34180428284646
788,73.44194028716979
887,2026.7000787264925
888,1039.5262638789987
889,3066.2263426054907
890,2026.7000787264925
891,1039.5262638789987
892,3066.2263426054907
893,0.0
894,0.3903224149497493
897,777.5652045830673
898,36.777806100047488
899,814.3430106831148
900,777.5652045830673
901,295.1751537090582
902,1072.7403582921257
903,0.0
904,0.3
907,567.8075567347014
908,271.51925230292167
909,839.326809037623
910,567.8075567347014
911,271.51925230292167
912,839.326809037623
913,0.0
914,0.10197775136647747
917,439.7142225632159
918,227.10101823285786
919,666.8152407960738
920,439.7142225632159
921,227.10101823285786
922,666.8152407960738
923,0.0
924,0.08526996047178921
1072,25.0
1073,0.3903224149497493
1074,0.010049357022971148
1075,19.926950176797829
1076,0.3903224149497493
1077,0.009
1078,25.0
1079,0.3903224149497493
1080,0.01004935691936376
1081,24.29757953845545
1082,0.3
1083,0.009496937386932
1084,21.32144124026116
1085,0.3
1086,0.00900544875653501
1087,23.856728135512456
1088,0.3
1089,0.009392729977528519
1090,25.000000000000008
1091,0.10197775136647747
1092,0.010049357007711634
1093,19.560000345963745
1094,0.10197775136647747
1095,0.009
1096,25.000000000000005
1097,0.10197775136647747
1098,0.01004935683643777
1099,25.0
1100,0.08526996047178921
1101,0.010049357007070723
1102,19.961774671651506
1103,0.08526996047178921
1104,0.009
1105,25.0
1106,0.08526996047178921
1107,0.010049356842074753
2,1, 8, 1, 1, 1,10.00,15.00,Monday
7,27.775000000000003
8,0.020453725384560325
9,85.0
10,3.75
11,0.0
12,0.0
389,29.51161440154324
390,0.0205309842077556
391,35.17116949059432
392,0.025727317469129548
393,24.738886344844553
394,0.009698452640622867
395,24.999999999999998
396,0.010049357051871922
397,24.999999999999998
398,0.01004935669832127
399,24.999999999999994
400,0.010049356507125901
401,31.64054364374035
402,0.0245867642825925
403,30.405958031339006
404,0.02056326238384075
515,77.13742505926577
554,69.67669851137652
593,49.037326920677
632,49.99999998991626
671,50.00000015390671
710,50.000000165296537
749,81.2785723037392
788,73.38749094042608
887,2025.5799579958012
888,1038.621381739018
889,3064.201339734819
890,2025.5799579958012
891,1038.621381739018
892,3064.201339734819
893,0.0
894,0.3899830627962567
897,747.7390951517233
898,292.03988807391638
899,1039.7789832256397
900,747.7390951517233
901,232.93583179119208
902,980.6749269429154
903,0.0
904,0.2999999999999999
907,567.4404887932043
908,271.25774226200658
909,838.6982310552108
910,567.4404887932043
911,271.25774226200658
912,838.6982310552108
913,0.0
914,0.1018796576592276
917,439.6457397360226
918,226.89286073966702
919,666.5386004756897
920,439.6457397360226
921,226.89286073966702
922,666.5386004756897
923,0.0
924,0.08519205455337642
1072,24.999999999999994
1073,0.3899830627962567
1074,0.010049357051871919
1075,19.925341977751928
1076,0.3899830627962567
1077,0.008999999999999996
1078,24.999999999999994
1079,0.3899830627962567
1080,0.010049357041599918
1081,24.73888634484454
1082,0.2999999999999999
1083,0.009698452640622864
1084,22.078309374724975
1085,0.2999999999999999
1086,0.009288951358920354
1087,24.515474429597945
1088,0.2999999999999999
1089,0.00959440302147889
1090,24.999999999999987
1091,0.1018796576592276
1092,0.010049356698321266
1093,19.55828266015371
1094,0.1018796576592276
1095,0.008999999999999996
1096,24.99999999999999
1097,0.1018796576592276
1098,0.01004935687194444
1099,24.999999999999987
1100,0.08519205455337642
1101,0.0100493565071259
1102,19.957952734806527
1103,0.08519205455337642
1104,0.008999999999999996
1105,24.999999999999987
1106,0.08519205455337642
1107,0.01004935668429791
2,1, 8, 1, 1, 1,15.00,20.00,Monday
7,27.833333333333337
8,0.02044263963032297
9,84.66666666666667
10,3.666666666666667
11,0.0
12,0.0
389,29.512926759608506
390,0.020528032561789146
391,35.17328924193622
392,0.02571494917465383
393,25.051525383737454
394,0.00987187311738636
395,25.0
396,0.010049357053640415
397,25.0
398,0.010049357008198498
399,24.999999999999998
400,0.010049356477918352
401,31.64627676809401
402,0.024575347182434465
403,30.409628415979513
404,0.020551946267467738
515,77.12085873044859
554,69.63637955759728
593,48.97863183471803
632,50.000001419894449
671,49.999999776076709
710,49.99999860096776
749,81.21585769401924
788,73.3329918991019
887,2024.4619128134735
888,1037.6917725139866
889,3062.15368532746
890,2024.4619128134735
891,1037.6917725139866
892,3062.15368532746
893,0.0
894,0.38963450314922279
897,709.570819274395
898,678.3446880301224
899,1387.9155073045175
900,709.570819274395
901,213.162106433563
902,922.7329257079581
903,0.0
904,0.3000000000000001
907,567.0907217254935
908,270.9885533472649
909,838.0792750727585
910,567.0907217254935
911,270.9885533472649
912,838.0792750727585
913,0.0
914,0.10177871036682063
917,439.5877266535165
918,226.67865675694663
919,666.266383410463
920,439.5877266535165
921,226.67865675694663
922,666.266383410463
923,0.0
924,0.08511189676803427
1072,25.000000000000008
1073,0.38963450314922279
1074,0.010049357053640419
1075,19.923605814087276
1076,0.38963450314922279
1077,0.009000000000000001
1078,25.000000000000008
1079,0.38963450314922279
1080,0.010049357052665057
1081,25.051525383737464
1082,0.3000000000000001
1083,0.009871873117386365
1084,22.509272543451038
1085,0.3000000000000001
1086,0.009464549727983149
1087,24.821429348140847
1088,0.3000000000000001
1089,0.009743983790469216
1090,25.000000000000008
1091,0.10177871036682063
1092,0.010049357008198501
1093,19.556242965478597
1094,0.10177871036682063
1095,0.009000000000000001
1096,25.000000000000008
1097,0.10177871036682063
1098,0.010049356838398706
1099,25.000000000000008
1100,0.08511189676803427
1101,0.010049356477918355
1102,19.953870114124429
1103,0.08511189676803427
1104,0.009000000000000001
1105,25.0
1106,0.08511189676803427
1107,0.010049356493974519
2,1, 8, 1, 1, 1,20.00,25.00,Monday
7,27.891666666666667
8,0.02043120136804744
9,84.33333333333333
10,3.583333333333333
11,0.0
12,0.0
389,29.515330404319575
390,0.02052250373910386
391,35.17739810897847
392,0.025694593858569274
393,25.253086687353148
394,0.010191045196951705
395,25.0
396,0.010049356687236945
397,25.0
398,0.010049357048407782
399,24.999999999999998
400,0.010049356847447977
401,31.655876771357268
402,0.02455649939004233
403,30.416140134682487
404,0.02053302887011454
515,77.09007184191374
554,69.56765025883056
593,49.935218550262089
632,49.999998204542219
671,49.9999999729547
710,50.00000183162666
749,81.11176981662033
788,73.24034792817955
887,2023.4095316019296
888,1036.7383421975008
889,3060.1478737994304
890,2023.4095316019296
891,1036.7383421975008
892,3060.1478737994304
893,0.0
894,0.38927708273262609
897,831.4885086325908
898,863.5160167363281
899,1695.0045253689189
900,831.4885086325908
901,91.77429354298056
902,923.2628021755713
903,0.0
904,0.3
907,566.7561639454207
908,270.71272188498929
909,837.4688858304099
910,566.7561639454207
911,270.71272188498929
912,837.4688858304099
913,0.0
914,0.10167526650103552
917,439.5382800477455
918,226.45872068347433
919,665.9970007312198
920,439.5382800477455
921,226.45872068347433
922,665.9970007312198
923,0.0
924,0.08502958690187003
1072,25.0
1073,0.38927708273262609
1074,0.010049356687236945
1075,19.92158614681488
1076,0.38927708273262609
1077,0.009
1078,24.999999999999998
1079,0.38927708273262609
1080,0.010049357053822646
1081,25.253086687353148
1082,0.3
1083,0.010191045196951705
1084,22.49067612973014
1085,0.3
1086,0.009833922798923437
1087,25.199078416037787
1088,0.3
1089,0.009954231294457165
1090,25.0
1091,0.10167526650103552
1092,0.010049357048407782
1093,19.553919355451659
1094,0.10167526650103552
1095,0.009
1096,25.0
1097,0.10167526650103552
1098,0.010049357037920861
1099,24.999999999999998
1100,0.08502958690187003
1101,0.010049356847447977
1102,19.949553546017964
1103,0.08502958690187003
1104,0.009
1105,25.0
1106,0.08502958690187003
1107,0.010049356475013575
2,1, 8, 1, 1, 1,25.00,30.00,Monday
7,27.950000000000004
8,0.020419408645427244
9,84.0
10,3.5
11,0.0
12,0.0
389,29.51702772106371
390,0.020519362838140009
391,35.180323228705137
392,0.02568457401345442
393,24.801514368422756
394,0.009633152897909305
395,25.0
396,0.010049357002214217
397,25.0
398,0.010049357053222359
399,25.0
400,0.010049356799877126
401,31.66226277484901
402,0.02454717960793864
403,30.420977438699415
404,0.020523403741492503
515,77.07111485836956
554,69.53036516645756
593,48.52741376675377
632,49.99999974677564
671,50.000001417847489
710,50.00000017738499
749,81.05280958752326
788,73.18685337763303
887,2022.4210963705155
888,1035.7575408047488
889,3058.178637175264
890,2022.4210963705155
891,1035.7575408047488
892,3058.178637175264
893,0.0
894,0.388909552255967
897,1145.0001857148264
898,515.0924642239329
899,1660.0926499387593
900,1145.0001857148264
901,1116.149369139965
902,2261.1495548547916
903,0.0
904,0.3
907,566.4318094218461
908,270.42934913328517
909,836.8611585551312
910,566.4318094218461
911,270.42934913328517
912,836.8611585551312
913,0.0
914,0.10156902683589238
917,439.49309054513017
918,226.23362737605627
919,665.7267179211864
920,439.49309054513017
921,226.23362737605627
922,665.7267179211864
923,0.0
924,0.08494531273508306
1072,25.0
1073,0.388909552255967
1074,0.010049357002214217
1075,19.919270049442927
1076,0.388909552255967
1077,0.009
1078,25.0
1079,0.388909552255967
1080,0.010049356828518298
1081,24.801514368422756
1082,0.3
1083,0.009633152897909305
1084,21.35884641257393
1085,0.3
1086,0.008529712354957364
1087,25.088119184639937
1088,0.3
1089,0.00999410342762035
1090,25.0
1091,0.10156902683589238
1092,0.010049357053222359
1093,19.551342889422654
1094,0.10156902683589238
1095,0.009
1096,25.0
1097,0.10156902683589238
1098,0.010049357050584509
1099,25.0
1100,0.08494531273508306
1101,0.010049356799877126
1102,19.945062764986028
1103,0.08494531273508306
1104,0.009
1105,24.999999999999998
1106,0.08494531273508306
1107,0.010049356927921125
2,1, 8, 1, 1, 1,30.00,35.00,Monday
7,28.008333333333338
8,0.020407259504294466
9,83.66666666666666
10,3.4166666666666667
11,0.0
12,0.0
389,29.519856978257925
390,0.02051351448975874
391,35.185105222661288
392,0.025667810076826407
393,24.799164338684834
394,0.009732650470958436
395,25.0
396,0.010049357046827806
397,25.0
398,0.01004935667329884
399,24.999999999999998
400,0.010049356889157282
401,31.672364969290226
402,0.024531602304591329
403,30.429049558925209
404,0.020507004900526539
515,77.0372917734299
554,69.4684270535784
593,49.03251851666042
632,49.99999996521862
671,49.99999813629662
710,50.0000020358493
749,80.95694028790365
788,73.09646458190193
887,2021.4701064033114
888,1034.7540121747705
889,3056.2241185780819
890,2021.4701064033114
891,1034.7540121747705
892,3056.2241185780819
893,0.0
894,0.38853338711762527
897,832.37045134577
898,297.5512997547927
899,1129.9217511005628
900,832.37045134577
901,0.0
902,832.37045134577
903,0.0
904,0.3
907,566.1151595975514
908,270.1391612499425
909,836.2543208474939
910,566.1151595975514
911,270.1391612499425
912,836.2543208474939
913,0.0
914,0.10146024410846333
917,439.4498172984713
918,226.0021361887009
919,665.4519534871722
920,439.4498172984713
921,226.0021361887009
922,665.4519534871722
923,0.0
924,0.08485871022584486
1072,25.0
1073,0.38853338711762527
1074,0.010049357046827806
1075,19.916742448877629
1076,0.38853338711762527
1077,0.009
1078,25.0
1079,0.38853338711762527
1080,0.010049357034628783
1081,24.799164338684834
1082,0.3
1083,0.009732650470958436
1084,21.966210788057
1085,0.3
1086,0.009633152897909305
1087,24.679877054918788
1088,0.3
1089,0.009469144137529615
1090,25.0
1091,0.10146024410846333
1092,0.01004935667329884
1093,19.548550201543699
1094,0.10146024410846333
1095,0.009
1096,24.999999999999998
1097,0.10146024410846333
1098,0.010049357053683482
1099,24.999999999999998
1100,0.08485871022584486
1101,0.010049356889157282
1102,19.940402174311378
1103,0.08485871022584486
1104,0.009
1105,25.0
1106,0.08485871022584486
1107,0.010049356591359978
2,1, 8, 1, 1, 1,35.00,40.00,Monday
7,28.06666666666667
8,0.020394751980622625
9,83.33333333333334
10,3.3333333333333337
11,0.0
12,0.0
389,29.521900267930918
390,0.02050980545999944
391,35.188615894878
392,0.025657849339840986
393,25.192507338180016
394,0.009960487070402653
395,25.0
396,0.010049356829149117
397,25.0
398,0.010049356776278305
399,25.0
400,0.010049357031796967
401,31.679606624886774
402,0.02452233346246705
403,30.435046586966519
404,0.020497082693787927
515,77.0147417904084
554,69.4290724161159
593,48.99832508290421
632,50.0000003207104
671,50.00000006183732
710,49.99999989162262
749,80.89430004832237
788,73.03716551740198
887,2020.5909948700392
888,1033.7250427916516
889,3054.3160376616908
890,2020.5909948700392
891,1033.7250427916516
892,3054.3160376616908
893,0.0
894,0.3881478266709736
897,724.3251989962331
898,845.6192676435776
899,1569.9444666398109
900,724.3251989962331
901,228.09584368159359
902,952.4210426778267
903,0.0
904,0.3
907,565.826967264753
908,269.8412358557012
909,835.6682031204541
910,565.826967264753
911,269.8412358557012
912,835.6682031204541
913,0.0
914,0.1013486095921368
917,439.4237013752973
918,225.76524899436095
919,665.1889503696582
920,439.4237013752973
921,225.76524899436095
922,665.1889503696582
923,0.0
924,0.08477004506751433
1072,25.0
1073,0.3881478266709736
1074,0.010049356829149117
1075,19.913905915977574
1076,0.3881478266709736
1077,0.009
1078,25.0
1079,0.3881478266709736
1080,0.010049357049565916
1081,25.192507338180016
1082,0.3
1083,0.009960487070402653
1084,22.57773803536682
1085,0.3
1086,0.009508745360751341
1087,24.937687048702054
1088,0.3
1089,0.009807741083758568
1090,25.0
1091,0.1013486095921368
1092,0.010049356776278305
1093,19.545323707081147
1094,0.1013486095921368
1095,0.009
1096,25.0
1097,0.1013486095921368
1098,0.010049356823366902
1099,25.0
1100,0.08477004506751433
1101,0.010049357031796967
1102,19.935411095220215
1103,0.08477004506751433
1104,0.009
1105,25.0
1106,0.08477004506751433
1107,0.010049356953404096
2,1, 8, 1, 1, 1,40.00,45.00,Monday
7,28.125
8,0.02038188410453267
9,83.0
10,3.25
11,0.0
12,0.0
389,29.525195292664777
390,0.02050297760421728
391,35.19409969216358
392,0.025641224951075109
393,25.370727717038574
394,0.010321854137674107
395,25.0
396,0.010049356889293728
397,25.0
398,0.010049356890586208
399,25.0
400,0.01004935705108966
401,31.690824237586364
402,0.024506876717872173
403,30.44451780967162
404,0.02048023338857972
515,76.9753052708904
554,69.36485540607063
593,50.21315892700285
632,49.999999193879407
671,49.99999920020782
710,49.99999998608607
749,80.79384824029872
788,72.93949906997452
887,2019.6493349450723
888,1032.6689351554449
889,3052.318270100517
890,2019.6493349450723
891,1032.6689351554449
892,3052.318270100517
893,0.0
894,0.3877522382623362
897,857.5781515185887
898,984.278925509302
899,1841.8570770278907
900,857.5781515185887
901,59.238528312526799
902,916.8166798311155
903,0.0
904,0.3
907,565.5294344610354
908,269.5359723955361
909,835.0654068565715
910,565.5294344610354
911,269.5359723955361
912,835.0654068565715
913,0.0
914,0.10123422460045155
917,439.38684617380218
918,225.52256653247629
919,664.9094127062784
920,439.38684617380218
921,225.52256653247629
922,664.9094127062784
923,0.0
924,0.08467922602461578
1072,25.0
1073,0.3877522382623362
1074,0.010049356889293728
1075,19.911089732239345
1076,0.3877522382623362
1077,0.009
1078,25.0
1079,0.3877522382623362
1080,0.010049356605994204
1081,25.370727717038574
1082,0.3
1083,0.010321854137674107
1084,22.51584672757173
1085,0.3
1086,0.009960487070402653
1087,25.30880491764076
1088,0.3
1089,0.010038142444246607
1090,25.0
1091,0.10123422460045155
1092,0.010049356890586208
1093,19.542031954109555
1094,0.10123422460045155
1095,0.009
1096,25.0
1097,0.10123422460045155
1098,0.010049356579121644
1099,25.0
1100,0.08467922602461578
1101,0.01004935705108966
1102,19.930404521327607
1103,0.08467922602461578
1104,0.009
1105,25.000000000000005
1106,0.08467922602461578
1107,0.01004935704594302
2,1, 8, 1, 1, 1,45.00,50.00,Monday
7,28.183333333333338
8,0.02036865273284823
9,82.66666666666667
10,3.1666666666666667
11,0.0
12,0.0
389,29.527558821362918
390,0.02049863997141041
391,35.19804276594802
392,0.02563121363121318
393,24.44618673437041
394,0.009776152386037782
395,24.999999999999994
396,0.010049356693484727
397,25.0
398,0.010049356855150679
399,25.0
400,0.010049356698277343
401,31.698926988316779
402,0.02449754952463057
403,30.4514289056402
404,0.020469904363554529
515,76.94906279140416
554,69.32375130614584
593,50.289891861047319
632,50.0000010777713
671,49.99999997424962
710,49.99999920614562
749,80.72718435852552
788,72.87507202696375
887,2018.7592048859556
888,1031.5898864488375
889,3050.3490913347934
890,2018.7592048859556
891,1031.5898864488375
892,3050.3490913347934
893,0.0
894,0.3873478597841607
897,1366.0251235130234
898,435.16193341965899
899,1801.1870569326823
900,1366.0251235130234
901,1003.3195909868778
902,2369.344714499901
903,0.0
904,0.29999999999999957
907,565.2501136731655
908,269.22344618347855
909,834.473559856644
910,565.2501136731655
911,269.22344618347855
912,834.473559856644
913,0.0
914,0.10111708848281587
917,439.3600332749684
918,225.27419127882608
919,664.6342245537945
920,439.3600332749684
921,225.27419127882608
922,664.6342245537945
923,0.0
924,0.08458630656434482
1072,24.999999999999959
1073,0.3873478597841607
1074,0.010049356693484715
1075,19.90802228074532
1076,0.3873478597841607
1077,0.008999999999999988
1078,24.999999999999966
1079,0.3873478597841607
1080,0.010049356827041311
1081,24.44618673437038
1082,0.29999999999999957
1083,0.00977615238603777
1084,20.42693413462178
1085,0.29999999999999957
1086,0.008716685501614245
1087,24.8756647756311
1088,0.29999999999999957
1089,0.010033941783615179
1090,24.999999999999966
1091,0.10111708848281587
1092,0.010049356855150665
1093,19.538408203129224
1094,0.10111708848281587
1095,0.008999999999999988
1096,24.999999999999966
1097,0.10111708848281587
1098,0.010049356825881755
1099,24.999999999999966
1100,0.08458630656434482
1101,0.010049356698277329
1102,19.92514518892248
1103,0.08458630656434482
1104,0.008999999999999988
1105,24.999999999999966
1106,0.08458630656434482
1107,0.01004935686418622
2,1, 8, 1, 1, 1,50.00,55.00,Monday
7,28.241666666666668
8,0.020355058220209774
9,82.33333333333333
10,3.0833333333333337
11,0.0
12,0.0
389,29.53115080746942
390,0.02049091788885221
391,35.20385406069969
392,0.025615080956239476
393,24.644429241856604
394,0.009656420981750848
395,25.000000000000005
396,0.010049356478966964
397,25.000000000000005
398,0.010049357027984141
399,25.0
400,0.010049356876117123
401,31.710744197395859
402,0.024482560497206989
403,30.46179878566283
404,0.020452945995954345
515,76.90508658221725
554,69.25960813319647